 Gaussian 16, Revision B.01,
 Gaussian 16:  ES64L-G16RevB.01 20-Dec-2017

 ----------------------------------------------------
 #B3LYP/6-31G* em=gd3bj pop=MK iop(6/33=2,6/42=6) opt
 ----------------------------------------------------

 ---------------------
 remark line goes here
 ---------------------
 Symbolic Z-matrix:
 Charge =  0 Multiplicity = 1

 SCF Done:  E(RB3LYP) =  -1278.52927341     A.U. after   36 cycles
 SCF Done:  E(RB3LYP) =  -1278.56469736     A.U. after   20 cycles
 SCF Done:  E(RB3LYP) =  -1278.57630000     A.U. after   21 cycles
 SCF Done:  E(RB3LYP) =  -1278.58149224     A.U. after   14 cycles
 SCF Done:  E(RB3LYP) =  -1278.59029812     A.U. after   16 cycles
 SCF Done:  E(RB3LYP) =  -1278.59100037     A.U. after   15 cycles
 SCF Done:  E(RB3LYP) =  -1278.52806998     A.U. after   16 cycles
 SCF Done:  E(RB3LYP) =  -1278.58025427     A.U. after   14 cycles
 SCF Done:  E(RB3LYP) =  -1278.60095436     A.U. after   12 cycles
 SCF Done:  E(RB3LYP) =  -1278.60506061     A.U. after   16 cycles
 SCF Done:  E(RB3LYP) =  -1278.65118774     A.U. after    9 cycles
 SCF Done:  E(RB3LYP) =  -1278.65119102     A.U. after   10 cycles
 SCF Done:  E(RB3LYP) =  -1278.65119284     A.U. after    9 cycles
 SCF Done:  E(RB3LYP) =  -1278.65119332     A.U. after    8 cycles
 SCF Done:  E(RB3LYP) =  -1278.65119343     A.U. after    7 cycles
 SCF Done:  E(RB3LYP) =  -1278.65119348     A.U. after    7 cycles
 SCF Done:  E(RB3LYP) =  -1278.65119350     A.U. after    7 cycles
 SCF Done:  E(RB3LYP) =  -1278.65119351     A.U. after    7 cycles
 SCF Done:  E(RB3LYP) =  -1278.65119353     A.U. after    7 cycles
 SCF Done:  E(RB3LYP) =  -1278.65119353     A.U. after    7 cycles
 Optimization completed.
    -- Stationary point found.

                         Standard orientation:
 ---------------------------------------------------------------------
 Center     Atomic      Atomic             Coordinates (Angstroms)
 Number     Number       Type             X           Y           Z
 ---------------------------------------------------------------------
      1          6           0        3.305909    0.944509   -0.432737
      2          6           0        3.215376    1.685632    0.793419
      3          6           0        4.523311    0.163101   -0.383480
      4          6           0        5.147915    0.479352    0.791092
      5          6           0        4.852976   -0.961235   -1.314586
      6          6           0        1.091155    1.750097   -0.983106
      7          6           0        0.941050    2.459614    0.306162
      8          6           0        3.715736   -2.005024   -1.409111
      9          6           0       -0.033311    1.705253   -1.850115
     10          6           0        3.287306   -2.671646   -0.087529
     11          6           0        2.487909   -1.875393    0.953574
     12          6           0        0.325223   -2.192865   -0.322888
     13          6           0       -0.941454   -0.143887    1.270740
     14          6           0       -0.971541   -1.503590   -0.723471
     15          6           0       -3.525856   -0.165675   -0.903750
     16          6           0       -5.298620   -0.622766    1.216631
     17          6           0        2.243525    1.028789   -1.335193
     18          7           0        4.365961    1.386349    1.512121
     19          6           0        2.111401    2.436325    1.153544
     20          8           0       -0.153218    2.962884    0.648291
     21          7           0       -0.955327    1.564617   -2.553289
     22          7           0        1.185287   -1.261716    0.483742
     23          6           0        0.409528   -0.723174    1.669800
     24          7           0       -1.702573   -1.125286    0.480837
     25          6           0       -3.064393   -0.746419    0.285385
     26          6           0       -3.960696   -0.965964    1.341524
     27          6           0       -4.870258    0.166870   -1.038910
     28          6           0       -5.766284   -0.060475    0.016106
     29          6           0       -7.150748    0.275158   -0.124816
     30          7           0       -8.278340    0.539533   -0.235286
     31          1           0        6.068812    0.096162    1.208766
     32          1           0        5.048231   -0.592999   -2.331345
     33          1           0        5.772246   -1.460729   -0.983156
     34          1           0        4.042795   -2.807757   -2.081217
     35          1           0        2.847349   -1.547987   -1.896045
     36          1           0        2.735621   -3.589944   -0.321454
     37          1           0        4.186709   -3.000484    0.450103
     38          1           0        2.213429   -2.548130    1.772253
     39          1           0        3.067751   -1.049208    1.361098
     40          1           0        0.128206   -3.066123    0.305078
     41          1           0        0.894856   -2.492690   -1.202523
     42          1           0       -1.483753    0.058553    2.198703
     43          1           0       -0.834717    0.821054    0.758366
     44          1           0       -0.750036   -0.655462   -1.386918
     45          1           0       -1.572748   -2.219155   -1.292048
     46          1           0       -2.836662    0.077198   -1.705670
     47          1           0       -5.992052   -0.800398    2.031755
     48          1           0        2.284591    0.531398   -2.301173
     49          1           0        4.671878    1.891259    2.329028
     50          1           0        2.054820    2.969427    2.098208
     51          1           0        1.037676    0.041539    2.129035
     52          1           0        0.279373   -1.573079    2.346017
     53          1           0       -3.594402   -1.428238    2.253105
     54          1           0       -5.225740    0.624856   -1.955690
     55          1           0        1.425508   -0.446146   -0.117182
 ---------------------------------------------------------------------

 The electronic state is 1-A.
 Alpha  occ. eigenvalues --  -19.05214 -14.48278 -14.37758 -14.36356 -14.32409
 Alpha  occ. eigenvalues --  -14.30515 -10.28148 -10.27929 -10.27359 -10.24799
 Alpha  occ. eigenvalues --  -10.24075 -10.23722 -10.23635 -10.22895 -10.22291
 Alpha  occ. eigenvalues --  -10.22147 -10.22049 -10.21945 -10.21767 -10.21252
 Alpha  occ. eigenvalues --  -10.20963 -10.20919 -10.20473 -10.20368 -10.19969
 Alpha  occ. eigenvalues --  -10.19859 -10.19071 -10.18935 -10.18047 -10.16047
 Alpha  occ. eigenvalues --   -1.04628  -0.97526  -0.96356  -0.95464  -0.89569
 Alpha  occ. eigenvalues --   -0.87633  -0.86609  -0.84674  -0.82889  -0.82347
 Alpha  occ. eigenvalues --   -0.80327  -0.78326  -0.76399  -0.75802  -0.74663
 Alpha  occ. eigenvalues --   -0.73154  -0.70608  -0.69778  -0.68015  -0.66138
 Alpha  occ. eigenvalues --   -0.63948  -0.62748  -0.62573  -0.62274  -0.57523
 Alpha  occ. eigenvalues --   -0.57177  -0.56479  -0.55800  -0.54885  -0.53183
 Alpha  occ. eigenvalues --   -0.52439  -0.51986  -0.50969  -0.50536  -0.50194
 Alpha  occ. eigenvalues --   -0.49162  -0.48152  -0.46933  -0.46179  -0.45804
 Alpha  occ. eigenvalues --   -0.44612  -0.44162  -0.43976  -0.43572  -0.43401
 Alpha  occ. eigenvalues --   -0.42852  -0.42713  -0.42582  -0.41548  -0.41371
 Alpha  occ. eigenvalues --   -0.40515  -0.39581  -0.39318  -0.38825  -0.38134
 Alpha  occ. eigenvalues --   -0.37796  -0.37188  -0.36703  -0.36252  -0.36007
 Alpha  occ. eigenvalues --   -0.35463  -0.34724  -0.33762  -0.33689  -0.33495
 Alpha  occ. eigenvalues --   -0.31924  -0.31661  -0.30093  -0.29621  -0.27511
 Alpha  occ. eigenvalues --   -0.26692  -0.25265  -0.23051  -0.21685  -0.19333
 Alpha  occ. eigenvalues --   -0.15904
 Alpha virt. eigenvalues --   -0.04089  -0.02961  -0.01617   0.02396   0.02944
 Alpha virt. eigenvalues --    0.04718   0.04940   0.06194   0.06468   0.07066
 Alpha virt. eigenvalues --    0.07244   0.07576   0.08123   0.08629   0.08885

 Mulliken charges:
               1
     1  C    0.043860
     2  C    0.342520
     3  C    0.086358
     4  C   -0.037338
     5  C   -0.338860
     6  C   -0.032798
     7  C    0.408945
     8  C   -0.276743
     9  C    0.310889
    10  C   -0.292529
    11  C   -0.152044
    12  C   -0.169069
    13  C   -0.190289
    14  C   -0.170583
    15  C   -0.167743
    16  C   -0.146320
    17  C   -0.347790
    18  N   -0.697050
    19  C   -0.309151
    20  O   -0.618673
    21  N   -0.546204
    22  N   -0.527617
    23  C   -0.170072
    24  N   -0.508166
    25  C    0.283568
    26  C   -0.152451
    27  C   -0.158229
    28  C    0.137746
    29  C    0.232549
    30  N   -0.481761
    31  H    0.140489
    32  H    0.154811
    33  H    0.139407
    34  H    0.150045
    35  H    0.137542
    36  H    0.151574
    37  H    0.165158
    38  H    0.169496
    39  H    0.225668
    40  H    0.183918
    41  H    0.194026
    42  H    0.175582
    43  H    0.244143
    44  H    0.193522
    45  H    0.176701
    46  H    0.198166
    47  H    0.156484
    48  H    0.140899
    49  H    0.326127
    50  H    0.111200
    51  H    0.215681
    52  H    0.172370
    53  H    0.133338
    54  H    0.168055
    55  H    0.420640
 Sum of Mulliken charges =  -0.00000

 Dipole moment (field-independent basis, Debye):
    X=             11.4717    Y=            -11.3698    Z=              4.6202  Tot=             16.7993
 Quadrupole moment (field-independent basis, Debye-Ang):
   XX=           -216.1063   YY=           -184.4243   ZZ=           -167.6737
   XY=              3.3790   XZ=              2.0347   YZ=              4.5209

 ESP charges:
               1
     1  C   -0.023127
     2  C    0.253833
     3  C   -0.039797
     4  C   -0.179008
     5  C   -0.198577
     6  C   -0.333041
     7  C    0.589358
     8  C    0.097632
     9  C    0.449811
    10  C   -0.104553
    11  C    0.044058
    12  C   -0.088151
    13  C    0.254664
    14  C    0.204832
    15  C   -0.174517
    16  C   -0.073185
    17  C   -0.172649
    18  N   -0.388934
    19  C   -0.519387
    20  O   -0.608057
    21  N   -0.513909
    22  N    0.022010
    23  C   -0.251029
    24  N   -0.623462
    25  C    0.420666
    26  C   -0.290908
    27  C   -0.117656
    28  C   -0.069487
    29  C    0.361986
    30  N   -0.451021
    31  H    0.165224
    32  H    0.083768
    33  H    0.074850
    34  H    0.010928
    35  H   -0.019989
    36  H    0.019836
    37  H    0.069397
    38  H    0.054075
    39  H    0.022585
    40  H    0.106444
    41  H    0.076797
    42  H    0.070948
    43  H    0.015223
    44  H   -0.032100
    45  H    0.054741
    46  H    0.144786
    47  H    0.135707
    48  H    0.142678
    49  H    0.347847
    50  H    0.164029
    51  H    0.102939
    52  H    0.131431
    53  H    0.156791
    54  H    0.152873
    55  H    0.269797
 Sum of ESP charges =  -0.00000

 Normal termination of Gaussian 16 at Sun Mar 30 20:09:18 2025.
